LAMMPS (12 Dec 2018)
Total wall time: 0:00:02
